{
    "fact_h": 0,
    "fact_t": 1,
    "participant": 2,
    "inception": 3,
    "ISNI": 4,
    "instance_of": 5,
    "designated_as_terrorist_by": 6,
    "native_label": 7,
    "composer": 8,
    "language_of_work_or_name": 9,
    "performer": 10,
    "genre": 11,
    "record_label": 12,
    "country_of_origin": 13,
    "lyrics_by": 14,
    "publication_date": 15,
    "occupation": 16,
    "country_of_citizenship": 17,
    "educated_at": 18,
    "place_of_death": 19,
    "date_of_birth": 20,
    "date_of_death": 21,
    "place_of_birth": 22,
    "IPTC_Newscode": 23,
    "official_website": 24,
    "Revised_Romanization": 25,
    "point_in_time": 26,
    "country": 27,
    "Instagram_username": 28,
    "official_color": 29,
    "official_name": 30,
    "sport": 31,
    "Twitter_username": 32,
    "elevation_above_sea_level": 33,
    "title": 34,
    "original_language_of_film_or_TV_show": 35,
    "filming_location": 36,
    "based_on": 37,
    "UMLS_CUI": 38,
    "voice_type": 39,
    "number_of_episodes": 40,
    "`CANTIC-ID`": 41,
    "Stack_Exchange_tag": 42,
    "characters": 43,
    "creator": 44,
    "local_dialing_code": 45,
    "conflict": 46,
    "famous_people": 47,
    "cause_of_death": 48,
    "`languages_spoken,_written_or_signed`": 49,
    "ethnic_group": 50,
    "award_received": 51,
    "winner": 52,
    "manner_of_death": 53,
    "notable_work": 54,
    "IPI_name_number": 55,
    "`position_played_on_team_/_speciality`": 56,
    "name_in_native_language": 57,
    "country_for_sport": 58,
    "height": 59,
    "mass": 60,
    "director_of_photography": 61,
    "director": 62,
    "narrative_location": 63,
    "cast_member": 64,
    "short_name": 65,
    "followed_by": 66,
    "follows": 67,
    "edition_number": 68,
    "movement": 69,
    "native_language": 70,
    "duration": 71,
    "military_branch": 72,
    "screenwriter": 73,
    "after_a_work_by": 74,
    "author": 75,
    "`Libris-URI`": 76,
    "relative": 77,
    "Munzinger_IBA": 78,
    "headquarters_location": 79,
    "employer": 80,
    "located_in_the_administrative_territorial_entity": 81,
    "part_of": 82,
    "UK_Provider_Reference_Number": 83,
    "IPv4_routing_prefix": 84,
    "`British_Museum_person-institution`": 85,
    "students_count": 86,
    "parent_organization": 87,
    "IPv6_routing_prefix": 88,
    "affiliation": 89,
    "ARCHON_code": 90,
    "subsidiary": 91,
    "DfE_URN": 92,
    "tuition_fee": 93,
    "Medium_username": 94,
    "end_time": 95,
    "draft_pick_from_school": 96,
    "DOI_prefix": 97,
    "`located_at_street_address_(DEPRECATED)`": 98,
    "postal_code": 99,
    "Name_Assigning_Authority_Number": 100,
    "located_at_street_address": 101,
    "significant_event": 102,
    "member_of_sports_team": 103,
    "part_of_the_series": 104,
    "location": 105,
    "producer": 106,
    "contains_administrative_territorial_entity": 107,
    "shares_border_with": 108,
    "film_release_region": 109,
    "twinned_administrative_body": 110,
    "`ISO_3166-2_code`": 111,
    "Dewey_Decimal_Classification": 112,
    "subreddit": 113,
    "`FIPS_10-4_(countries_and_regions)`": 114,
    "pronunciation_audio": 115,
    "area": 116,
    "number_of_seats": 117,
    "number_of_constituencies": 118,
    "applies_to_jurisdiction": 119,
    "derivative_work": 120,
    "field_of_work": 121,
    "voice_actor": 122,
    "name_in_kana": 123,
    "convicted_of": 124,
    "location_of_formation": 125,
    "total_revenue": 126,
    "ISWC": 127,
    "distributor": 128,
    "collection": 129,
    "nominated_for": 130,
    "production_company": 131,
    "film_editor": 132,
    "Nintendo_GameID": 133,
    "executive_producer": 134,
    "`work_period_(start)`": 135,
    "nickname": 136,
    "has_part": 137,
    "main_subject": 138,
    "present_in_work": 139,
    "cost": 140,
    "fictional_universe_described_in": 141,
    "box_office": 142,
    "takes_place_in_fictional_universe": 143,
    "`ACM_Classification_Code_(2012)`": 144,
    "WOEID": 145,
    "product_or_material_produced": 146,
    "field_of_this_occupation": 147,
    "award_disciplines_or_subjects": 148,
    "length": 149,
    "birth_name": 150,
    "population": 151,
    "influenced_by": 152,
    "architectural_style": 153,
    "OSM_tag_or_key": 154,
    "start_time": 155,
    "time_period": 156,
    "color": 157,
    "review_score": 158,
    "designed_by": 159,
    "distribution": 160,
    "publisher": 161,
    "platform": 162,
    "game_mode": 163,
    "religion": 164,
    "eye_color": 165,
    "named_after": 166,
    "drafted_by": 167,
    "`dissolved,_abolished_or_demolished`": 168,
    "CVR_number": 169,
    "`McCune-Reischauer_romanization`": 170,
    "original_network": 171,
    "archives_at": 172,
    "registered_with": 173,
    "Giphy_username": 174,
    "owner_of": 175,
    "owned_by": 176,
    "sponsor": 177,
    "military_rank": 178,
    "series_ordinal": 179,
    "instrument": 180,
    "PermID": 181,
    "work_location": 182,
    "residence": 183,
    "OS_grid_reference": 184,
    "TOID": 185,
    "demonym": 186,
    "NUTS_code": 187,
    "capital": 188,
    "capital_of": 189,
    "IRS_Employer_Identification_Number": 190,
    "league": 191,
    "member_of": 192,
    "member_of_political_party": 193,
    "position_held": 194,
    "child": 195,
    "number_of_children": 196,
    "father": 197,
    "Biografisch_Portaal_number": 198,
    "signatory": 199,
    "head_of_government": 200,
    "Snapchat_username": 201,
    "number_of_seasons": 202,
    "located_in_or_next_to_body_of_water": 203,
    "heritage_designation": 204,
    "located_in_time_zone": 205,
    "motto_text": 206,
    "continent": 207,
    "licence_plate_code": 208,
    "office_held_by_head_of_government": 209,
    "founded_by": 210,
    "chairperson": 211,
    "found": 212,
    "`Corporate_Number_(Japan)`": 213,
    "located_on_terrain_feature": 214,
    "water_as_percent_of_area": 215,
    "dantai_code": 216,
    "military_conflicts": 217,
    "language_used": 218,
    "official_language": 219,
    "life_expectancy": 220,
    "IOC_country_code": 221,
    "country_calling_code": 222,
    "INSEE_countries_and_foreign_territories_code": 223,
    "film_distribute_region": 224,
    "mains_voltage": 225,
    "diplomatic_relation": 226,
    "nominal_GDP_per_capita": 227,
    "nominal_GDP": 228,
    "`ISO_3166-1_alpha-2_code`": 229,
    "`ISO_3166-1_alpha-3_code`": 230,
    "maritime_identification_digits": 231,
    "`ISO_3166-1_numeric_code`": 232,
    "Human_Development_Index": 233,
    "`number_of_out-of-school_children`": 234,
    "total_fertility_rate": 235,
    "unemployment_rate": 236,
    "marriageable_age": 237,
    "inflation_rate": 238,
    "mobile_country_code": 239,
    "real_gross_domestic_product_growth_rate": 240,
    "CIVICUS_Monitor_country_entry": 241,
    "PPP_GDP_per_capita": 242,
    "trunk_prefix": 243,
    "`GDP_(PPP)`": 244,
    "ITU_letter_code": 245,
    "total_reserves": 246,
    "time_of_earliest_written_record": 247,
    "Iconclass_notation": 248,
    "talk_show_guest": 249,
    "risk_factor": 250,
    "symptom_of": 251,
    "symptoms": 252,
    "eMedicine": 253,
    "DiseasesDB": 254,
    "`ICD-9-CM`": 255,
    "`ICD-10-CM`": 256,
    "MeSH_Code": 257,
    "net_worth": 258,
    "different_from": 259,
    "floruit": 260,
    "allegiance": 261,
    "geographic_distribution": 262,
    "public_holiday": 263,
    "retirement_age": 264,
    "age_of_majority": 265,
    "IAB_code": 266,
    "properties_for_this_type": 267,
    "lowest_point": 268,
    "exported_to": 269,
    "maximum_capacity": 270,
    "GRIN_URL": 271,
    "China_administrative_division_code": 272,
    "currency": 273,
    "`compulsory_education_(minimum_age)`": 274,
    "`compulsory_education_(maximum_age)`": 275,
    "industry": 276,
    "sibling": 277,
    "GeoNames_feature_code": 278,
    "Wikidata_property": 279,
    "sRGB_color_hex_triplet": 280,
    "film_crew_member": 281,
    "`GSS_code_(2011)`": 282,
    "number_of_households": 283,
    "CBS_municipality_code": 284,
    "Amsterdam_code": 285,
    "notable_people_with_this_condition": 286,
    "located_on_astronomical_location": 287,
    "`Deutsche_Synchronkartei_actor-ID`": 288,
    "price": 289,
    "medical_condition": 290,
    "ISIN": 291,
    "`Hornbostel-Sachs_classification`": 292,
    "male_population": 293,
    "female_population": 294,
    "urban_population": 295,
    "`Indian_census_area_code_(2011)`": 296,
    "rural_population": 297,
    "Statistics_Canada_Geographic_code": 298,
    "place_of_burial": 299,
    "patron_saint": 300,
    "Swedish_Anbytarforum": 301,
    "detail_map": 302,
    "relief_location_map": 303,
    "German_regional_key": 304,
    "given_name": 305,
    "OLAC_video_game_genre_vocabulary": 306,
    "`ROME_Occupation_Code_(v3)`": 307,
    "ISCO_occupation_code": 308,
    "practiced_by": 309,
    "vocalized_name": 310,
    "`FIPS_6-4_(US_counties)`": 311,
    "studies": 312,
    "contains_settlement": 313,
    "grants": 314,
    "RIA_Novosti_reference": 315,
    "candidate": 316,
    "candidacy_in_election": 317,
    "employees": 318,
    "family_name": 319,
    "spouse": 320,
    "legal_form": 321,
    "date_of_first_performance": 322,
    "pseudonym": 323,
    "incidence": 324,
    "Regensburg_Classification": 325,
    "EDRPOU_code": 326,
    "Universal_Decimal_Classification": 327,
    "is_a_list_of": 328,
    "event_distance": 329,
    "`place_of_origin_(Switzerland)`": 330,
    "external_data_available_at": 331,
    "Swiss_municipality_code": 332,
    "net_profit": 333,
    "SIREN_number": 334,
    "total_assets": 335,
    "operating_income": 336,
    "SIRET_number": 337,
    "`WoRMS-ID`": 338,
    "place_of_publication": 339,
    "military_casualty_classification": 340,
    "`SBC-2010_occupation_code`": 341,
    "Swiss_Football_Association_Club_Number": 342,
    "`ICD-9`": 343,
    "works_in_collection": 344,
    "`KulturNav-id`": 345,
    "Swedish_Literature_Bank_AuthorID": 346,
    "Google_Doodle": 347,
    "Australian_Business_Number": 348,
    "CRICOS_Provider_Code": 349,
    "autonomous_system_number": 350,
    "presenter": 351,
    "`FIPS_5-2_alpha_code_(US_states)`": 352,
    "`FIPS_5-2_numeric_code_(US_states)`": 353,
    "official_symbol": 354,
    "partner": 355,
    "lifestyle": 356,
    "godparent": 357,
    "has_cause": 358,
    "taxon_name": 359,
    "spoken_text_audio": 360,
    "basic_form_of_government": 361,
    "basin_country": 362,
    "nighttime_view": 363,
    "video": 364,
    "replaced_by": 365,
    "replaces": 366,
    "territory_claimed_by": 367,
    "`M.49_code`": 368,
    "age_of_consent": 369,
    "age_of_candidacy": 370,
    "median_income": 371,
    "UIC_alphabetical_country_code": 372,
    "GS1_country_code": 373,
    "UIC_numerical_country_code": 374,
    "Gini_coefficient": 375,
    "partially_contains": 376,
    "`VAT-rate`": 377,
    "place_name_sign": 378,
    "coextensive_with": 379,
    "`Indian_census_area_code_(2001)`": 380,
    "official_religion": 381,
    "catchphrase": 382,
    "head_of_state": 383,
    "Pinterest_username": 384,
    "`CLARA-ID`": 385,
    "season_starts": 386,
    "visitors_per_year": 387,
    "culture": 388,
    "FIFA_country_code": 389,
    "ranking": 390,
    "kit_supplier": 391,
    "`SOC_Code_(2010)`": 392,
    "aircraft_registration_prefix": 393,
    "UNDP_country_code": 394,
    "`GOST_7.67_cyrillic`": 395,
    "admission_rate": 396,
    "model_item": 397,
    "political_ideology": 398,
    "developer": 399,
    "honorific_prefix": 400,
    "noble_title": 401,
    "from_fictional_universe": 402,
    "narrator": 403,
    "member_count": 404,
    "`Charity_Commission_no.`": 405,
    "National_Heritage_List_for_England_number": 406,
    "LAU": 407,
    "timezone_offset": 408,
    "NRHP_reference_number": 409,
    "film_regional_debut_venue": 410,
    "health_specialty": 411,
    "Amazon_author_page": 412,
    "occupant": 413,
    "academic_degree": 414,
    "librettist": 415,
    "instrumentation": 416,
    "UNSPSC_Code": 417,
    "ISBN_publisher_prefix": 418,
    "vehicle_normally_used": 419,
    "designed_to_carry": 420,
    "`MIL-STD-2525_Symbol_Identification_Code`": 421,
    "`RePEc_Short-ID`": 422,
    "MCN_code": 423,
    "schematic": 424,
    "taxon_rank": 425,
    "German_municipality_key": 426,
    "IPI_base_code": 427,
    "name": 428,
    "date_of_official_opening": 429,
    "`UN/LOCODE`": 430,
    "`has_dialect_(DEPRECATED)`": 431,
    "dialect_of": 432,
    "Glottolog_code": 433,
    "number_of_speakers": 434,
    "IETF_language_tag": 435,
    "`ISO_639-3_code`": 436,
    "`ISO_639-2_code`": 437,
    "Library_of_Congress_Classification": 438,
    "facet_of": 439,
    "place_served_by_transport_hub": 440,
    "inspired_by": 441,
    "EU_VAT_number": 442,
    "sports_season_of_league_or_competition": 443,
    "seed_team": 444,
    "frequency_of_event": 445,
    "month_of_the_year": 446,
    "German_district_key": 447,
    "Dictionary_of_Swedish_National_Biography": 448,
    "hair_color": 449,
    "vertical_depth": 450,
    "manufacturer": 451,
    "units_sold": 452,
    "discontinued_date": 453,
    "location_of_final_assembly": 454,
    "use": 455,
    "INSEE_municipality_code": 456,
    "webcam_page_URL": 457,
    "Wikitribune_category": 458,
    "geography_of_topic": 459,
    "conferred_by": 460,
    "sexual_orientation": 461,
    "`KldB-2010_occupation_code`": 462,
    "Norwegian_organisation_number": 463,
    "Norwegian_municipality_number": 464,
    "participant_of": 465,
    "approved_by": 466,
    "`audio_recording_of_the_subject's_spoken_voice`": 467,
    "head_coach": 468,
    "Twitter_hashtag": 469,
    "production_designer": 470,
    "Italian_cadastre_code": 471,
    "chief_executive_officer": 472,
    "newspaper_format": 473,
    "Classification_of_Instructional_Programs_code": 474,
    "USDA_NDB_number": 475,
    "OKPD2_code_of_the_good_or_service": 476,
    "nutrient": 477,
    "`work_period_(end)`": 478,
    "sport_number": 479,
    "costume_designer": 480,
    "NACE_code": 481,
    "PubMed_Health": 482,
    "exploitation_visa_number": 483,
    "published_in": 484,
    "soundtrack_album": 485,
    "license": 486,
    "full_work_available_at": 487,
    "family": 488,
    "parent_astronomical_body": 489,
    "density": 490,
    "perimeter": 491,
    "child_astronomical_body": 492,
    "radius": 493,
    "flattening": 494,
    "distance_from_Earth": 495,
    "apparent_magnitude": 496,
    "volume_as_quantity": 497,
    "temperature": 498,
    "absolute_magnitude": 499,
    "spectral_class": 500,
    "angular_diameter": 501,
    "metallicity": 502,
    "luminosity": 503,
    "taxon_common_name": 504,
    "superhuman_feature_or_ability": 505,
    "narrative_role": 506,
    "diaspora": 507,
    "opposite_of": 508,
    "sex_or_gender": 509,
    "enclave_within": 510,
    "separated_from": 511,
    "worshipped_by": 512,
    "foundational_text": 513,
    "editor": 514,
    "indigenous_to": 515,
    "distribution_map": 516,
    "Wikimedia_language_code": 517,
    "`ISO_639-1_code`": 518,
    "WALS_lect_code": 519,
    "`GOST_7.75–97_code`": 520,
    "`Ethnologue.com_language_code`": 521,
    "Linguasphere_code": 522,
    "collection_or_exhibition_size": 523,
    "studied_by": 524,
    "destination_point": 525,
    "speed": 526,
    "number_of_participants": 527,
    "has_parts_of_the_class": 528,
    "uses": 529,
    "used_by": 530,
    "Erdős_number": 531,
    "office_contested": 532,
    "successful_candidate": 533,
    "eligible_voters": 534,
    "width": 535,
    "speed_limit": 536,
    "central_government_debt_as_a_percent_of_GDP": 537,
    "has_quality": 538,
    "production_code": 539,
    "legislative_body": 540,
    "stated_in": 541,
    "first_line": 542,
    "home_venue": 543,
    "maximum_frequency_of_audible_sound": 544,
    "earliest_date": 545,
    "minimum_number_of_players": 546,
    "maximum_number_of_players": 547,
    "TA98_Latin_term": 548,
    "IATA_airport_code": 549,
    "territory_overlaps": 550,
    "source_of_material": 551,
    "exclave_of": 552,
    "subtitle": 553,
    "last_line": 554,
    "Alexa_rank": 555,
    "date_of_burial_or_cremation": 556,
    "annual_number_of_weddings": 557,
    "operating_area": 558,
    "mean_age": 559,
    "date_of_baptism_in_early_childhood": 560,
    "location_of_discovery": 561,
    "individual_tax_rate": 562,
    "history_of_topic": 563,
    "Politika_topic": 564,
    "voltage": 565,
    "`vehicles_per_capita_(1000)`": 566,
    "official_residence": 567,
    "office_held_by_head_of_state": 568,
    "licensed_to_broadcast_to": 569,
    "suicide_rate": 570,
    "highest_judicial_authority": 571,
    "budget": 572,
    "DOI": 573,
    "Soundex": 574,
    "Cologne_phonetics": 575,
    "Caverphone": 576,
    "`ISO_639-5_code`": 577,
    "programming_language": 578,
    "operating_system": 579,
    "fabrication_method": 580,
    "dissertation_submitted_to": 581,
    "Scottish_Charity_number": 582,
    "Common_Procurement_Vocabulary": 583,
    "PhilPapers_topic": 584,
    "interests": 585,
    "penalty": 586,
    "officially_opened_by": 587,
    "Minor_Planet_Center_observatory_code": 588,
    "depicts": 589,
    "ELSTAT_geographical_code": 590,
    "student": 591,
    "student_of": 592,
    "phone_number": 593,
    "`e-mail_address`": 594,
    "archival_creator_authority_record_at_the_Archives_nationales": 595,
    "Museofile": 596,
    "fax_number": 597,
    "medical_treatment": 598,
    "SIRUTA_code": 599,
    "permanent_resident_of": 600,
    "material_used": 601,
    "operator": 602,
    "programming_paradigm": 603,
    "official_blog": 604,
    "minimum_frequency_of_audible_sound": 605,
    "donated_by": 606,
    "catalog_code": 607,
    "number_of_deaths": 608,
    "Library_of_Congress_Cultural_Heritage_Organizations": 609,
    "INE_municipality_code": 610,
    "`contributor(s)_to_the_creative_work`": 611,
    "business_division": 612,
    "total_equity": 613,
    "`International_Standard_Industrial_Classification_code_Rev.4`": 614,
    "Debian_stable_package": 615,
    "`ISBN-13`": 616,
    "`ISBN-10`": 617,
    "OCLC_control_number": 618,
    "sidekick_of": 619,
    "time_of_discovery_or_invention": 620,
    "start_point": 621,
    "next_higher_rank": 622,
    "next_lower_rank": 623,
    "parent_club": 624,
    "ISO_4217_code": 625,
    "has_effect": 626,
    "BMLO": 627,
    "`number_of_representatives_in_an_organization/legislature`": 628,
    "`series_spin-off`": 629,
    "said_to_be_the_same_as": 630,
    "Minitel_code": 631,
    "channel_number": 632,
    "NBN_System_Key": 633,
    "home_world": 634,
    "orbital_eccentricity": 635,
    "`semi-major_axis`": 636,
    "orbital_period": 637,
    "longitude_of_ascending_node": 638,
    "argument_of_periapsis": 639,
    "apoapsis": 640,
    "orbital_inclination": 641,
    "periapsis": 642,
    "diameter": 643,
    "magnetic_moment": 644,
    "mean_anomaly": 645,
    "appears_in_the_form_of": 646,
    "afflicts": 647,
    "format_as_a_regular_expression": 648,
    "Yahoo_Answers_category": 649,
    "`ICD-O`": 650,
    "copyright_representative": 651,
    "cites": 652,
    "software_engine": 653,
    "organisation_directed_from_the_office_or_person": 654,
    "office_held_by_head_of_the_organisation": 655,
    "codename": 656,
    "writing_system": 657,
    "ISO_15924_numeric_code": 658,
    "`ISO_15924_alpha-4_code`": 659,
    "update_method": 660,
    "commissioned_by": 661,
    "political_alignment": 662,
    "`ISO_3166-3`": 663,
    "EPPO_Code": 664,
    "ITIS_TSN": 665,
    "date_depicted": 666,
    "NOC_Occupation_Code": 667,
    "number_of_graves": 668,
    "Austrian_municipality_key": 669,
    "film_poster": 670,
    "religious_name": 671,
    "`ICD-10`": 672,
    "`Code_of_Household_Registration_and_Conscription_Information_System_(Taiwan)`": 673,
    "tabular_population": 674,
    "broadcast_by": 675,
    "general_manager": 676,
    "religious_order": 677,
    "Quora_username": 678,
    "ABS_ASCL_code": 679,
    "disease_burden": 680,
    "architect": 681,
    "Brazilian_municipality_code": 682,
    "quantity": 683,
    "IRC_channel": 684,
    "file_extension": 685,
    "GitHub_username": 686,
    "bug_tracking_system": 687,
    "media_type": 688,
    "Munzinger_Sport_number": 689,
    "theme_music": 690,
    "copyright_holder": 691,
    "INSEE_region_code": 692,
    "KLfG_Critical_Dictionary_of_foreign_contemporary_literature": 693,
    "Philippine_Standard_Geographic_Code": 694,
    "electorate": 695,
    "`fiscal/tax_revenue`": 696,
    "edition_or_translation_of": 697,
    "has_edition": 698,
    "ISO_standard": 699,
    "Vimeo_username": 700,
    "Australian_Company_Number": 701,
    "sports_league_level": 702,
    "IDESCAT_territorial_code_in_Catalonia": 703,
    "watershed_area": 704,
    "mouth_of_the_watercourse": 705,
    "discharge": 706,
    "tributary": 707,
    "NLC_authorities": 708,
    "source_of_income": 709,
    "Merchant_Category_Code": 710,
    "SIC_code": 711,
    "mascot": 712,
    "number_of_houses": 713,
    "fee": 714,
    "does_not_have_part": 715,
    "organizer": 716,
    "RxNorm_CUI": 717,
    "WALS_family_code": 718,
    "Danish_urban_area_code": 719,
    "Reddit_username": 720,
    "original_film_format": 721,
    "Swedish_urban_area_code": 722,
    "PCP_reference_number": 723,
    "interested_in": 724,
    "streaming_media_URL": 725,
    "maximal_incubation_period_in_humans": 726,
    "minimal_incubation_period_in_humans": 727,
    "number_of_cases": 728,
    "prevalence": 729,
    "volume": 730,
    "`page(s)`": 731,
    "UNII": 732,
    "ZVG_number": 733,
    "Gmelin_number": 734,
    "RTECS_number": 735,
    "EC_number": 736,
    "Reaxys_registry_number": 737,
    "chemical_structure": 738,
    "chemical_formula": 739,
    "domain_of_saint_or_deity": 740,
    "synodic_period": 741,
    "rotation_period": 742,
    "residence_time_of_water": 743,
    "total_exports": 744,
    "foreign_direct_investment_net_outflow": 745,
    "foreign_direct_investment_net_inflow": 746,
    "musical_conductor": 747,
    "airline_alliance": 748,
    "Dictionary_of_Medieval_Names_from_European_Sources_entry": 749,
    "discoverer_or_inventor": 750,
    "botanist_author_abbreviation": 751,
    "`author_citation_(zoology)`": 752,
    "home_port": 753,
    "INSEE_department_code": 754,
    "weather_history": 755,
    "terminus": 756,
    "LinkedIn_personal_profile_URL": 757,
    "SSR_place_name_number": 758,
    "subject_has_role": 759,
    "drug_used_for_treatment": 760,
    "set_in_period": 761,
    "Quebec_municipalities_geographical_code": 762,
    "albedo": 763,
    "`substitute/deputy/replacement_of_office/officeholder`": 764,
    "`Indian_census_area_code_(1991)`": 765,
    "IATA_airline_designator": 766,
    "ICAO_airline_designator": 767,
    "has_contributing_factor": 768,
    "number_of_parts_of_this_work_of_art": 769,
    "number_of_subscribers": 770,
    "`NIS/INS_code`": 771,
    "amateur_radio_callsign": 772,
    "ancestral_home": 773,
    "term_length_of_office": 774,
    "appointed_by": 775,
    "public_key_fingerprint": 776,
    "market_capitalization": 777,
    "connects_with": 778,
    "captain": 779,
    "public_domain_date": 780,
    "professorship": 781,
    "IIIF_manifest": 782,
    "HTML_entity": 783,
    "Ameblo_username": 784,
    "number_of_pages": 785,
    "total_produced": 786,
    "MAME_ROM_name": 787,
    "`parliament.uk_biography_pages`": 788,
    "call_sign": 789,
    "doubles_record": 790,
    "inventory_number": 791,
    "art_director": 792,
    "KLG_Kritisches_Lexikon_der_Gegenwartsliteratur": 793,
    "beats_per_minute": 794,
    "depicted_by": 795,
    "first_flight": 796,
    "Harmonized_System_Code": 797,
    "CAS_Registry_Number": 798,
    "consumption_rate": 799,
    "consumption_rate_per_capita": 800,
    "rector": 801,
    "Wikimedia_username": 802,
    "singles_record": 803,
    "this_taxon_is_source_of": 804,
    "natural_product_of_taxon": 805,
    "item_operated": 806,
    "monogram": 807,
    "`director/manager`": 808,
    "mother": 809,
    "`Enterprise_number_(Belgium)`": 810,
    "main_food_source": 811,
    "heart_rate": 812,
    "mountain_range": 813,
    "Irish_Grid_Reference": 814,
    "`Party_Number_(Taiwan)`": 815,
    "service_entry": 816,
    "Artsy_gene": 817,
    "contributing_factor_of": 818,
    "Amtrak_station_code": 819,
    "minimum_age": 820,
    "runway": 821,
    "ICAO_airport_code": 822,
    "patronage": 823,
    "airline_hub": 824,
    "British_Museum_bioID": 825,
    "attendance": 826,
    "feast_day": 827,
    "Dreadnought_Project_page": 828,
    "road_number": 829,
    "Education_Institution_Identification_Number": 830,
    "quantity_buried": 831,
    "administrative_code_of_Indonesia": 832,
    "illustrator": 833,
    "ISSN": 834,
    "publication_interval": 835,
    "IMO_ship_number": 836,
    "yard_number": 837,
    "beam": 838,
    "draft": 839,
    "callsign_of_airline": 840,
    "ResearcherID": 841,
    "airline_accounting_code": 842,
    "`NSDAP_membership_number_(1925–1945)`": 843,
    "charter_URL": 844,
    "Statistics_Indonesia_ethnicity_code": 845,
    "Cullum_number": 846,
    "Artists_in_Canada_record_number": 847,
    "honorific_suffix": 848,
    "OKPD_code_of_the_good_or_service": 849,
    "dedicated_to": 850,
    "salinity": 851,
    "Finnish_municipality_number": 852,
    "KSH_code": 853,
    "time_index": 854,
    "Portable_Game_Notation": 855,
    "stall_speed": 856,
    "water_footprint": 857,
    "commander_of": 858,
    "had_as_last_meal": 859,
    "last_words": 860,
    "Bulbapedia_article": 861,
    "`Portuguese_Job_Code_CPP-2010`": 862,
    "maintained_by": 863,
    "production_date": 864,
    "transliteration": 865,
    "has_immediate_cause": 866,
    "time_in_space": 867,
    "`PictoRight_ID-Droit_de_suite`": 868,
    "killed_by": 869,
    "`Wine_AppDB-ID`": 870,
    "post_town": 871,
    "Swedish_Organization_Number": 872,
    "prize_money": 873,
    "`Arch Linux_package`": 874,
    "PO_Box": 875,
    "professional_or_sports_partner": 876,
    "Index_Herbariorum_code": 877,
    "Biographical_Dictionary_of_Swedish_Women": 878,
    "ASIN": 879,
    "snap_package": 880,
    "Sächsische_Biografie": 881,
    "`Nupill_Literatura_Digital_-_Author`": 882,
    "Iranian_National_Heritage_registration_number": 883,
    "Mastodon_address": 884,
    "DNB_editions": 885,
    "FAA_airport_code": 886,
    "OpenCorporates_corporate_grouping": 887,
    "Norway_Import_Service_and_Registration_Authority_publisher_code": 888,
    "Ubuntu_package": 889,
    "Gentoo_package": 890,
    "Fedora_package": 891,
    "number_of_elevators": 892,
    "UNESCO_Biosphere_Reserve_url": 893,
    "UAI_code": 894,
    "floors_below_ground": 895,
    "illiterate_population": 896,
    "literate_population": 897,
    "floors_above_ground": 898,
    "Central_Index_Key": 899,
    "personal_best": 900,
    "Swedish_municipality_code": 901,
    "TeX_string": 902,
    "married_name": 903,
    "GS1_Manufacturer_code": 904,
    "Consolidated_code_of_the_electronic_catalog_of_libraries_of_Belarus": 905,
    "total_liabilities": 906,
    "board_member": 907,
    "total_expenditure": 908,
    "AISHE_code": 909,
    "SlideShare_username": 910,
    "filmography": 911,
    "National_Bridge_Inventory_Number": 912,
    "DBU_playerprofile": 913,
    "LIBRIS_editions": 914,
    "number_of_spans": 915,
    "clearance": 916,
    "longest_span": 917,
    "`make-up_artist`": 918,
    "`DSM-5_classification`": 919,
    "inscription": 920,
    "Revised_Hepburn_romanization": 921,
    "SPLASH": 922,
    "TERYT_municipality_code": 923,
    "Telegram_username": 924,
    "InChIKey": 925,
    "InChI": 926,
    "Thailand_central_administrative_unit_code": 927,
    "fleet_or_registration_number": 928,
    "depicts_Iconclass_notation": 929,
    "significant_person": 930,
    "SWB_editions": 931,
    "E_number": 932,
    "PubChem_CID": 933,
    "canonical_SMILES": 934,
    "`ISO_9362_SWIFT/BIC_code`": 935,
    "ATC_code": 936,
    "solubility": 937,
    "melting_point": 938,
    "United_States_Armed_Forces_service_number": 939,
    "Dictionary_of_New_Zealand_Biography": 940,
    "decomposition_point": 941,
    "CosIng_number": 942,
    "World_Health_Organisation_International_Nonproprietary_Name": 943,
    "GS1_Global_Product_Classification_brick_code": 944,
    "sectional_view": 945,
    "doctoral_advisor": 946,
    "doctoral_student": 947,
    "awarded_for_period": 948,
    "base_salary": 949,
    "Parsons_code": 950,
    "total_goals_in_career": 951,
    "statistical_leader": 952,
    "`Academia.edu_profile_URL`": 953,
    "quotes_work": 954,
    "cash": 955,
    "Catalogus_Professorum_Halensis": 956,
    "average_shot_length": 957,
    "pKa": 958,
    "flash_point": 959,
    "vapor_pressure": 960,
    "`time-weighted_average_exposure_limit`": 961,
    "upper_flammable_limit": 962,
    "IDLH": 963,
    "ionization_energy": 964,
    "speed_of_sound": 965,
    "boiling_point": 966,
    "UN_packaging_group": 967,
    "standard_molar_entropy": 968,
    "Kemler_code": 969,
    "refractive_index": 970,
    "UN_class": 971,
    "combustion_enthalpy": 972,
    "UN_number": 973,
    "lower_flammable_limit": 974,
    "standard_enthalpy_of_formation": 975,
    "autoignition_temperature": 976,
    "oxidation_state": 977,
    "atomic_number": 978,
    "element_symbol": 979,
    "electronegativity": 980,
    "electrical_conductivity": 981,
    "`short-term_exposure_limit`": 982,
    "ceiling_exposure_limit": 983,
    "thermal_conductivity": 984,
    "compressive_modulus_of_elasticity": 985,
    "relative_permeability": 986,
    "embodied_energy": 987,
    "dynamic_viscosity": 988,
    "defined_daily_dose": 989,
    "minimum_explosive_concentration": 990,
    "median_lethal_dose": 991,
    "GEMS_Code": 992,
    "`PlantList-ID`": 993,
    "fact_r": 994,
    "nominee": 995,
    "statement_is_subject_of": 996,
    "determination_method": 997,
    "review_score_by": 998,
    "character_role": 999,
    "for_work": 1000,
    "applies_to_part": 1001,
    "diplomatic_mission_sent": 1002,
    "object_has_role": 1003,
    "points_for": 1004,
    "retrieved": 1005,
    "`number_of_points/goals/set_scored`": 1006,
    "`number_of_matches_played/races/starts`": 1007,
    "acquisition_transaction": 1008,
    "frequency": 1009,
    "criterion_used": 1010,
    "direction_relative_to_location": 1011,
    "catalog": 1012,
    "academic_major": 1013,
    "end_cause": 1014,
    "cabinet": 1015,
    "named_as": 1016,
    "type_of_kinship": 1017,
    "upper_limit": 1018,
    "lower_limit": 1019,
    "nature_of_statement": 1020,
    "valid_in_period": 1021,
    "proportion": 1022,
    "together_with": 1023,
    "valid_in_place": 1024,
    "proxy": 1025,
    "author_name_string": 1026,
    "mapping_relation_type": 1027,
    "excluding": 1028,
    "street_number": 1029,
    "named_by": 1030,
    "applies_to_people": 1031,
    "literal_translation": 1032,
    "place_of_marriage": 1033,
    "reason_for_deprecation": 1034,
    "statement_disputed_by": 1035,
    "conversion_to_standard_unit": 1036,
    "represented_by": 1037,
    "award_rationale": 1038,
    "start_period": 1039,
    "quote": 1040,
    "Möllendorff_transliteration": 1041,
    "direction": 1042,
    "sourcing_circumstances": 1043,
    "latest_date": 1044,
    "minimum_quantity": 1045,
    "maximum_value": 1046,
    "stated_as": 1047,
    "elected_in": 1048,
    "highest_point": 1049,
    "identity_of_subject_in_context": 1050,
    "day_in_year_for_periodic_occurrence": 1051,
    "identity_of_object_in_context": 1052,
    "located_on_street": 1053,
    "subclass_of": 1054,
    "taxon_author": 1055,
    "year_of_taxon_name_publication": 1056,
    "image": 1057,
    "main_regulatory_text": 1058,
    "of": 1059,
    "phase_of_matter": 1060,
    "described_by_source": 1061,
    "conscription_number": 1062,
    "addressee": 1063,
    "parliamentary_term": 1064,
    "memory_capacity": 1065,
    "votes_received": 1066,
    "running_mate": 1067,
    "draft_pick_number": 1068,
    "route_of_administration": 1069,
    "solvent": 1070,
    "grammatical_gender": 1071,
    "applies_to_taxon": 1072,
    "maximum_age": 1073,
    "based_on_heuristic": 1074,
    "pressure": 1075,
    "applies_to_name": 1076,
    "subject_item_of_this_property": 1077,
    "intended_public": 1078,
    "regular_expression_syntax": 1079,
    "burial_plot_reference": 1080,
    "statement_supported_by": 1081,
    "doctoral_thesis": 1082,
    "archive_date": 1083,
    "pinyin_transliteration": 1084,
    "lowest_income_threshold": 1085,
    "highest_income_threshold": 1086,
    "name_of_the_character_role": 1087,
    "stated_age_at_event": 1088,
    "directions": 1089,
    "alternate_names": 1090,
    "relative_to": 1091,
    "EThOS_thesis_ID": 1092,
    "last_update": 1093,
    "number_confirmed": 1094,
    "court": 1095,
    "refine_date": 1096,
    "`central_bank/issuer`": 1097,
    "pronunciation_variety": 1098,
    "rating": 1099,
    "tributary_orientation": 1100
  }